LAMMPS Description

     8  atoms
     0  bonds
     0  angles
     0  dihedrals
     0  impropers

     2  atom types

  0.0 1.0 xlo xhi
  0.0 1.0 ylo yhi
  0.0 1.0 zlo zhi

Masses

      1		22.989
      2 	35.453

Atoms # full

1 1 1 1.0 0.0 0.0 0.0
2 2 2 -1.0 0.5 0.0 0.0
3 3 1 1.0 0.5 0.5 0.0
4 4 2 -1.0 0.0 0.5 0.0
5 5 1 1.0 0.5 0.0 0.5
6 6 2 -1.0 0.0 0.0 0.5
7 7 1 1.0 0.0 0.5 0.5
8 8 2 -1.0 0.5 0.5 0.5

