LAMMPS Description

     8000  atoms
     0  bonds
     0  angles
     0  dihedrals
     0  impropers

     2  atom types

  0.0 10.0 xlo xhi
  0.0 10.0 ylo yhi
  0.0 10.0 zlo zhi

Masses

      1		22.989
      2 	35.453

Atoms # full

1 1 1 1.0 0.0 0.0 0.0
2 2 2 -1.0 0.5 0.0 0.0
3 3 1 1.0 0.5 0.5 0.0
4 4 2 -1.0 0.0 0.5 0.0
5 5 1 1.0 0.5 0.0 0.5
6 6 2 -1.0 0.0 0.0 0.5
7 7 1 1.0 0.0 0.5 0.5
8 8 2 -1.0 0.5 0.5 0.5
9 9 1 1.0 0.0 0.0 1.0
10 10 2 -1.0 0.5 0.0 1.0
11 11 1 1.0 0.5 0.5 1.0
12 12 2 -1.0 0.0 0.5 1.0
13 13 1 1.0 0.5 0.0 1.5
14 14 2 -1.0 0.0 0.0 1.5
15 15 1 1.0 0.0 0.5 1.5
16 16 2 -1.0 0.5 0.5 1.5
17 17 1 1.0 0.0 0.0 2.0
18 18 2 -1.0 0.5 0.0 2.0
19 19 1 1.0 0.5 0.5 2.0
20 20 2 -1.0 0.0 0.5 2.0
21 21 1 1.0 0.5 0.0 2.5
22 22 2 -1.0 0.0 0.0 2.5
23 23 1 1.0 0.0 0.5 2.5
24 24 2 -1.0 0.5 0.5 2.5
25 25 1 1.0 0.0 0.0 3.0
26 26 2 -1.0 0.5 0.0 3.0
27 27 1 1.0 0.5 0.5 3.0
28 28 2 -1.0 0.0 0.5 3.0
29 29 1 1.0 0.5 0.0 3.5
30 30 2 -1.0 0.0 0.0 3.5
31 31 1 1.0 0.0 0.5 3.5
32 32 2 -1.0 0.5 0.5 3.5
33 33 1 1.0 0.0 0.0 4.0
34 34 2 -1.0 0.5 0.0 4.0
35 35 1 1.0 0.5 0.5 4.0
36 36 2 -1.0 0.0 0.5 4.0
37 37 1 1.0 0.5 0.0 4.5
38 38 2 -1.0 0.0 0.0 4.5
39 39 1 1.0 0.0 0.5 4.5
40 40 2 -1.0 0.5 0.5 4.5
41 41 1 1.0 0.0 0.0 5.0
42 42 2 -1.0 0.5 0.0 5.0
43 43 1 1.0 0.5 0.5 5.0
44 44 2 -1.0 0.0 0.5 5.0
45 45 1 1.0 0.5 0.0 5.5
46 46 2 -1.0 0.0 0.0 5.5
47 47 1 1.0 0.0 0.5 5.5
48 48 2 -1.0 0.5 0.5 5.5
49 49 1 1.0 0.0 0.0 6.0
50 50 2 -1.0 0.5 0.0 6.0
51 51 1 1.0 0.5 0.5 6.0
52 52 2 -1.0 0.0 0.5 6.0
53 53 1 1.0 0.5 0.0 6.5
54 54 2 -1.0 0.0 0.0 6.5
55 55 1 1.0 0.0 0.5 6.5
56 56 2 -1.0 0.5 0.5 6.5
57 57 1 1.0 0.0 0.0 7.0
58 58 2 -1.0 0.5 0.0 7.0
59 59 1 1.0 0.5 0.5 7.0
60 60 2 -1.0 0.0 0.5 7.0
61 61 1 1.0 0.5 0.0 7.5
62 62 2 -1.0 0.0 0.0 7.5
63 63 1 1.0 0.0 0.5 7.5
64 64 2 -1.0 0.5 0.5 7.5
65 65 1 1.0 0.0 0.0 8.0
66 66 2 -1.0 0.5 0.0 8.0
67 67 1 1.0 0.5 0.5 8.0
68 68 2 -1.0 0.0 0.5 8.0
69 69 1 1.0 0.5 0.0 8.5
70 70 2 -1.0 0.0 0.0 8.5
71 71 1 1.0 0.0 0.5 8.5
72 72 2 -1.0 0.5 0.5 8.5
73 73 1 1.0 0.0 0.0 9.0
74 74 2 -1.0 0.5 0.0 9.0
75 75 1 1.0 0.5 0.5 9.0
76 76 2 -1.0 0.0 0.5 9.0
77 77 1 1.0 0.5 0.0 9.5
78 78 2 -1.0 0.0 0.0 9.5
79 79 1 1.0 0.0 0.5 9.5
80 80 2 -1.0 0.5 0.5 9.5
81 81 1 1.0 0.0 1.0 0.0
82 82 2 -1.0 0.5 1.0 0.0
83 83 1 1.0 0.5 1.5 0.0
84 84 2 -1.0 0.0 1.5 0.0
85 85 1 1.0 0.5 1.0 0.5
86 86 2 -1.0 0.0 1.0 0.5
87 87 1 1.0 0.0 1.5 0.5
88 88 2 -1.0 0.5 1.5 0.5
89 89 1 1.0 0.0 1.0 1.0
90 90 2 -1.0 0.5 1.0 1.0
91 91 1 1.0 0.5 1.5 1.0
92 92 2 -1.0 0.0 1.5 1.0
93 93 1 1.0 0.5 1.0 1.5
94 94 2 -1.0 0.0 1.0 1.5
95 95 1 1.0 0.0 1.5 1.5
96 96 2 -1.0 0.5 1.5 1.5
97 97 1 1.0 0.0 1.0 2.0
98 98 2 -1.0 0.5 1.0 2.0
99 99 1 1.0 0.5 1.5 2.0
100 100 2 -1.0 0.0 1.5 2.0
101 101 1 1.0 0.5 1.0 2.5
102 102 2 -1.0 0.0 1.0 2.5
103 103 1 1.0 0.0 1.5 2.5
104 104 2 -1.0 0.5 1.5 2.5
105 105 1 1.0 0.0 1.0 3.0
106 106 2 -1.0 0.5 1.0 3.0
107 107 1 1.0 0.5 1.5 3.0
108 108 2 -1.0 0.0 1.5 3.0
109 109 1 1.0 0.5 1.0 3.5
110 110 2 -1.0 0.0 1.0 3.5
111 111 1 1.0 0.0 1.5 3.5
112 112 2 -1.0 0.5 1.5 3.5
113 113 1 1.0 0.0 1.0 4.0
114 114 2 -1.0 0.5 1.0 4.0
115 115 1 1.0 0.5 1.5 4.0
116 116 2 -1.0 0.0 1.5 4.0
117 117 1 1.0 0.5 1.0 4.5
118 118 2 -1.0 0.0 1.0 4.5
119 119 1 1.0 0.0 1.5 4.5
120 120 2 -1.0 0.5 1.5 4.5
121 121 1 1.0 0.0 1.0 5.0
122 122 2 -1.0 0.5 1.0 5.0
123 123 1 1.0 0.5 1.5 5.0
124 124 2 -1.0 0.0 1.5 5.0
125 125 1 1.0 0.5 1.0 5.5
126 126 2 -1.0 0.0 1.0 5.5
127 127 1 1.0 0.0 1.5 5.5
128 128 2 -1.0 0.5 1.5 5.5
129 129 1 1.0 0.0 1.0 6.0
130 130 2 -1.0 0.5 1.0 6.0
131 131 1 1.0 0.5 1.5 6.0
132 132 2 -1.0 0.0 1.5 6.0
133 133 1 1.0 0.5 1.0 6.5
134 134 2 -1.0 0.0 1.0 6.5
135 135 1 1.0 0.0 1.5 6.5
136 136 2 -1.0 0.5 1.5 6.5
137 137 1 1.0 0.0 1.0 7.0
138 138 2 -1.0 0.5 1.0 7.0
139 139 1 1.0 0.5 1.5 7.0
140 140 2 -1.0 0.0 1.5 7.0
141 141 1 1.0 0.5 1.0 7.5
142 142 2 -1.0 0.0 1.0 7.5
143 143 1 1.0 0.0 1.5 7.5
144 144 2 -1.0 0.5 1.5 7.5
145 145 1 1.0 0.0 1.0 8.0
146 146 2 -1.0 0.5 1.0 8.0
147 147 1 1.0 0.5 1.5 8.0
148 148 2 -1.0 0.0 1.5 8.0
149 149 1 1.0 0.5 1.0 8.5
150 150 2 -1.0 0.0 1.0 8.5
151 151 1 1.0 0.0 1.5 8.5
152 152 2 -1.0 0.5 1.5 8.5
153 153 1 1.0 0.0 1.0 9.0
154 154 2 -1.0 0.5 1.0 9.0
155 155 1 1.0 0.5 1.5 9.0
156 156 2 -1.0 0.0 1.5 9.0
157 157 1 1.0 0.5 1.0 9.5
158 158 2 -1.0 0.0 1.0 9.5
159 159 1 1.0 0.0 1.5 9.5
160 160 2 -1.0 0.5 1.5 9.5
161 161 1 1.0 0.0 2.0 0.0
162 162 2 -1.0 0.5 2.0 0.0
163 163 1 1.0 0.5 2.5 0.0
164 164 2 -1.0 0.0 2.5 0.0
165 165 1 1.0 0.5 2.0 0.5
166 166 2 -1.0 0.0 2.0 0.5
167 167 1 1.0 0.0 2.5 0.5
168 168 2 -1.0 0.5 2.5 0.5
169 169 1 1.0 0.0 2.0 1.0
170 170 2 -1.0 0.5 2.0 1.0
171 171 1 1.0 0.5 2.5 1.0
172 172 2 -1.0 0.0 2.5 1.0
173 173 1 1.0 0.5 2.0 1.5
174 174 2 -1.0 0.0 2.0 1.5
175 175 1 1.0 0.0 2.5 1.5
176 176 2 -1.0 0.5 2.5 1.5
177 177 1 1.0 0.0 2.0 2.0
178 178 2 -1.0 0.5 2.0 2.0
179 179 1 1.0 0.5 2.5 2.0
180 180 2 -1.0 0.0 2.5 2.0
181 181 1 1.0 0.5 2.0 2.5
182 182 2 -1.0 0.0 2.0 2.5
183 183 1 1.0 0.0 2.5 2.5
184 184 2 -1.0 0.5 2.5 2.5
185 185 1 1.0 0.0 2.0 3.0
186 186 2 -1.0 0.5 2.0 3.0
187 187 1 1.0 0.5 2.5 3.0
188 188 2 -1.0 0.0 2.5 3.0
189 189 1 1.0 0.5 2.0 3.5
190 190 2 -1.0 0.0 2.0 3.5
191 191 1 1.0 0.0 2.5 3.5
192 192 2 -1.0 0.5 2.5 3.5
193 193 1 1.0 0.0 2.0 4.0
194 194 2 -1.0 0.5 2.0 4.0
195 195 1 1.0 0.5 2.5 4.0
196 196 2 -1.0 0.0 2.5 4.0
197 197 1 1.0 0.5 2.0 4.5
198 198 2 -1.0 0.0 2.0 4.5
199 199 1 1.0 0.0 2.5 4.5
200 200 2 -1.0 0.5 2.5 4.5
201 201 1 1.0 0.0 2.0 5.0
202 202 2 -1.0 0.5 2.0 5.0
203 203 1 1.0 0.5 2.5 5.0
204 204 2 -1.0 0.0 2.5 5.0
205 205 1 1.0 0.5 2.0 5.5
206 206 2 -1.0 0.0 2.0 5.5
207 207 1 1.0 0.0 2.5 5.5
208 208 2 -1.0 0.5 2.5 5.5
209 209 1 1.0 0.0 2.0 6.0
210 210 2 -1.0 0.5 2.0 6.0
211 211 1 1.0 0.5 2.5 6.0
212 212 2 -1.0 0.0 2.5 6.0
213 213 1 1.0 0.5 2.0 6.5
214 214 2 -1.0 0.0 2.0 6.5
215 215 1 1.0 0.0 2.5 6.5
216 216 2 -1.0 0.5 2.5 6.5
217 217 1 1.0 0.0 2.0 7.0
218 218 2 -1.0 0.5 2.0 7.0
219 219 1 1.0 0.5 2.5 7.0
220 220 2 -1.0 0.0 2.5 7.0
221 221 1 1.0 0.5 2.0 7.5
222 222 2 -1.0 0.0 2.0 7.5
223 223 1 1.0 0.0 2.5 7.5
224 224 2 -1.0 0.5 2.5 7.5
225 225 1 1.0 0.0 2.0 8.0
226 226 2 -1.0 0.5 2.0 8.0
227 227 1 1.0 0.5 2.5 8.0
228 228 2 -1.0 0.0 2.5 8.0
229 229 1 1.0 0.5 2.0 8.5
230 230 2 -1.0 0.0 2.0 8.5
231 231 1 1.0 0.0 2.5 8.5
232 232 2 -1.0 0.5 2.5 8.5
233 233 1 1.0 0.0 2.0 9.0
234 234 2 -1.0 0.5 2.0 9.0
235 235 1 1.0 0.5 2.5 9.0
236 236 2 -1.0 0.0 2.5 9.0
237 237 1 1.0 0.5 2.0 9.5
238 238 2 -1.0 0.0 2.0 9.5
239 239 1 1.0 0.0 2.5 9.5
240 240 2 -1.0 0.5 2.5 9.5
241 241 1 1.0 0.0 3.0 0.0
242 242 2 -1.0 0.5 3.0 0.0
243 243 1 1.0 0.5 3.5 0.0
244 244 2 -1.0 0.0 3.5 0.0
245 245 1 1.0 0.5 3.0 0.5
246 246 2 -1.0 0.0 3.0 0.5
247 247 1 1.0 0.0 3.5 0.5
248 248 2 -1.0 0.5 3.5 0.5
249 249 1 1.0 0.0 3.0 1.0
250 250 2 -1.0 0.5 3.0 1.0
251 251 1 1.0 0.5 3.5 1.0
252 252 2 -1.0 0.0 3.5 1.0
253 253 1 1.0 0.5 3.0 1.5
254 254 2 -1.0 0.0 3.0 1.5
255 255 1 1.0 0.0 3.5 1.5
256 256 2 -1.0 0.5 3.5 1.5
257 257 1 1.0 0.0 3.0 2.0
258 258 2 -1.0 0.5 3.0 2.0
259 259 1 1.0 0.5 3.5 2.0
260 260 2 -1.0 0.0 3.5 2.0
261 261 1 1.0 0.5 3.0 2.5
262 262 2 -1.0 0.0 3.0 2.5
263 263 1 1.0 0.0 3.5 2.5
264 264 2 -1.0 0.5 3.5 2.5
265 265 1 1.0 0.0 3.0 3.0
266 266 2 -1.0 0.5 3.0 3.0
267 267 1 1.0 0.5 3.5 3.0
268 268 2 -1.0 0.0 3.5 3.0
269 269 1 1.0 0.5 3.0 3.5
270 270 2 -1.0 0.0 3.0 3.5
271 271 1 1.0 0.0 3.5 3.5
272 272 2 -1.0 0.5 3.5 3.5
273 273 1 1.0 0.0 3.0 4.0
274 274 2 -1.0 0.5 3.0 4.0
275 275 1 1.0 0.5 3.5 4.0
276 276 2 -1.0 0.0 3.5 4.0
277 277 1 1.0 0.5 3.0 4.5
278 278 2 -1.0 0.0 3.0 4.5
279 279 1 1.0 0.0 3.5 4.5
280 280 2 -1.0 0.5 3.5 4.5
281 281 1 1.0 0.0 3.0 5.0
282 282 2 -1.0 0.5 3.0 5.0
283 283 1 1.0 0.5 3.5 5.0
284 284 2 -1.0 0.0 3.5 5.0
285 285 1 1.0 0.5 3.0 5.5
286 286 2 -1.0 0.0 3.0 5.5
287 287 1 1.0 0.0 3.5 5.5
288 288 2 -1.0 0.5 3.5 5.5
289 289 1 1.0 0.0 3.0 6.0
290 290 2 -1.0 0.5 3.0 6.0
291 291 1 1.0 0.5 3.5 6.0
292 292 2 -1.0 0.0 3.5 6.0
293 293 1 1.0 0.5 3.0 6.5
294 294 2 -1.0 0.0 3.0 6.5
295 295 1 1.0 0.0 3.5 6.5
296 296 2 -1.0 0.5 3.5 6.5
297 297 1 1.0 0.0 3.0 7.0
298 298 2 -1.0 0.5 3.0 7.0
299 299 1 1.0 0.5 3.5 7.0
300 300 2 -1.0 0.0 3.5 7.0
301 301 1 1.0 0.5 3.0 7.5
302 302 2 -1.0 0.0 3.0 7.5
303 303 1 1.0 0.0 3.5 7.5
304 304 2 -1.0 0.5 3.5 7.5
305 305 1 1.0 0.0 3.0 8.0
306 306 2 -1.0 0.5 3.0 8.0
307 307 1 1.0 0.5 3.5 8.0
308 308 2 -1.0 0.0 3.5 8.0
309 309 1 1.0 0.5 3.0 8.5
310 310 2 -1.0 0.0 3.0 8.5
311 311 1 1.0 0.0 3.5 8.5
312 312 2 -1.0 0.5 3.5 8.5
313 313 1 1.0 0.0 3.0 9.0
314 314 2 -1.0 0.5 3.0 9.0
315 315 1 1.0 0.5 3.5 9.0
316 316 2 -1.0 0.0 3.5 9.0
317 317 1 1.0 0.5 3.0 9.5
318 318 2 -1.0 0.0 3.0 9.5
319 319 1 1.0 0.0 3.5 9.5
320 320 2 -1.0 0.5 3.5 9.5
321 321 1 1.0 0.0 4.0 0.0
322 322 2 -1.0 0.5 4.0 0.0
323 323 1 1.0 0.5 4.5 0.0
324 324 2 -1.0 0.0 4.5 0.0
325 325 1 1.0 0.5 4.0 0.5
326 326 2 -1.0 0.0 4.0 0.5
327 327 1 1.0 0.0 4.5 0.5
328 328 2 -1.0 0.5 4.5 0.5
329 329 1 1.0 0.0 4.0 1.0
330 330 2 -1.0 0.5 4.0 1.0
331 331 1 1.0 0.5 4.5 1.0
332 332 2 -1.0 0.0 4.5 1.0
333 333 1 1.0 0.5 4.0 1.5
334 334 2 -1.0 0.0 4.0 1.5
335 335 1 1.0 0.0 4.5 1.5
336 336 2 -1.0 0.5 4.5 1.5
337 337 1 1.0 0.0 4.0 2.0
338 338 2 -1.0 0.5 4.0 2.0
339 339 1 1.0 0.5 4.5 2.0
340 340 2 -1.0 0.0 4.5 2.0
341 341 1 1.0 0.5 4.0 2.5
342 342 2 -1.0 0.0 4.0 2.5
343 343 1 1.0 0.0 4.5 2.5
344 344 2 -1.0 0.5 4.5 2.5
345 345 1 1.0 0.0 4.0 3.0
346 346 2 -1.0 0.5 4.0 3.0
347 347 1 1.0 0.5 4.5 3.0
348 348 2 -1.0 0.0 4.5 3.0
349 349 1 1.0 0.5 4.0 3.5
350 350 2 -1.0 0.0 4.0 3.5
351 351 1 1.0 0.0 4.5 3.5
352 352 2 -1.0 0.5 4.5 3.5
353 353 1 1.0 0.0 4.0 4.0
354 354 2 -1.0 0.5 4.0 4.0
355 355 1 1.0 0.5 4.5 4.0
356 356 2 -1.0 0.0 4.5 4.0
357 357 1 1.0 0.5 4.0 4.5
358 358 2 -1.0 0.0 4.0 4.5
359 359 1 1.0 0.0 4.5 4.5
360 360 2 -1.0 0.5 4.5 4.5
361 361 1 1.0 0.0 4.0 5.0
362 362 2 -1.0 0.5 4.0 5.0
363 363 1 1.0 0.5 4.5 5.0
364 364 2 -1.0 0.0 4.5 5.0
365 365 1 1.0 0.5 4.0 5.5
366 366 2 -1.0 0.0 4.0 5.5
367 367 1 1.0 0.0 4.5 5.5
368 368 2 -1.0 0.5 4.5 5.5
369 369 1 1.0 0.0 4.0 6.0
370 370 2 -1.0 0.5 4.0 6.0
371 371 1 1.0 0.5 4.5 6.0
372 372 2 -1.0 0.0 4.5 6.0
373 373 1 1.0 0.5 4.0 6.5
374 374 2 -1.0 0.0 4.0 6.5
375 375 1 1.0 0.0 4.5 6.5
376 376 2 -1.0 0.5 4.5 6.5
377 377 1 1.0 0.0 4.0 7.0
378 378 2 -1.0 0.5 4.0 7.0
379 379 1 1.0 0.5 4.5 7.0
380 380 2 -1.0 0.0 4.5 7.0
381 381 1 1.0 0.5 4.0 7.5
382 382 2 -1.0 0.0 4.0 7.5
383 383 1 1.0 0.0 4.5 7.5
384 384 2 -1.0 0.5 4.5 7.5
385 385 1 1.0 0.0 4.0 8.0
386 386 2 -1.0 0.5 4.0 8.0
387 387 1 1.0 0.5 4.5 8.0
388 388 2 -1.0 0.0 4.5 8.0
389 389 1 1.0 0.5 4.0 8.5
390 390 2 -1.0 0.0 4.0 8.5
391 391 1 1.0 0.0 4.5 8.5
392 392 2 -1.0 0.5 4.5 8.5
393 393 1 1.0 0.0 4.0 9.0
394 394 2 -1.0 0.5 4.0 9.0
395 395 1 1.0 0.5 4.5 9.0
396 396 2 -1.0 0.0 4.5 9.0
397 397 1 1.0 0.5 4.0 9.5
398 398 2 -1.0 0.0 4.0 9.5
399 399 1 1.0 0.0 4.5 9.5
400 400 2 -1.0 0.5 4.5 9.5
401 401 1 1.0 0.0 5.0 0.0
402 402 2 -1.0 0.5 5.0 0.0
403 403 1 1.0 0.5 5.5 0.0
404 404 2 -1.0 0.0 5.5 0.0
405 405 1 1.0 0.5 5.0 0.5
406 406 2 -1.0 0.0 5.0 0.5
407 407 1 1.0 0.0 5.5 0.5
408 408 2 -1.0 0.5 5.5 0.5
409 409 1 1.0 0.0 5.0 1.0
410 410 2 -1.0 0.5 5.0 1.0
411 411 1 1.0 0.5 5.5 1.0
412 412 2 -1.0 0.0 5.5 1.0
413 413 1 1.0 0.5 5.0 1.5
414 414 2 -1.0 0.0 5.0 1.5
415 415 1 1.0 0.0 5.5 1.5
416 416 2 -1.0 0.5 5.5 1.5
417 417 1 1.0 0.0 5.0 2.0
418 418 2 -1.0 0.5 5.0 2.0
419 419 1 1.0 0.5 5.5 2.0
420 420 2 -1.0 0.0 5.5 2.0
421 421 1 1.0 0.5 5.0 2.5
422 422 2 -1.0 0.0 5.0 2.5
423 423 1 1.0 0.0 5.5 2.5
424 424 2 -1.0 0.5 5.5 2.5
425 425 1 1.0 0.0 5.0 3.0
426 426 2 -1.0 0.5 5.0 3.0
427 427 1 1.0 0.5 5.5 3.0
428 428 2 -1.0 0.0 5.5 3.0
429 429 1 1.0 0.5 5.0 3.5
430 430 2 -1.0 0.0 5.0 3.5
431 431 1 1.0 0.0 5.5 3.5
432 432 2 -1.0 0.5 5.5 3.5
433 433 1 1.0 0.0 5.0 4.0
434 434 2 -1.0 0.5 5.0 4.0
435 435 1 1.0 0.5 5.5 4.0
436 436 2 -1.0 0.0 5.5 4.0
437 437 1 1.0 0.5 5.0 4.5
438 438 2 -1.0 0.0 5.0 4.5
439 439 1 1.0 0.0 5.5 4.5
440 440 2 -1.0 0.5 5.5 4.5
441 441 1 1.0 0.0 5.0 5.0
442 442 2 -1.0 0.5 5.0 5.0
443 443 1 1.0 0.5 5.5 5.0
444 444 2 -1.0 0.0 5.5 5.0
445 445 1 1.0 0.5 5.0 5.5
446 446 2 -1.0 0.0 5.0 5.5
447 447 1 1.0 0.0 5.5 5.5
448 448 2 -1.0 0.5 5.5 5.5
449 449 1 1.0 0.0 5.0 6.0
450 450 2 -1.0 0.5 5.0 6.0
451 451 1 1.0 0.5 5.5 6.0
452 452 2 -1.0 0.0 5.5 6.0
453 453 1 1.0 0.5 5.0 6.5
454 454 2 -1.0 0.0 5.0 6.5
455 455 1 1.0 0.0 5.5 6.5
456 456 2 -1.0 0.5 5.5 6.5
457 457 1 1.0 0.0 5.0 7.0
458 458 2 -1.0 0.5 5.0 7.0
459 459 1 1.0 0.5 5.5 7.0
460 460 2 -1.0 0.0 5.5 7.0
461 461 1 1.0 0.5 5.0 7.5
462 462 2 -1.0 0.0 5.0 7.5
463 463 1 1.0 0.0 5.5 7.5
464 464 2 -1.0 0.5 5.5 7.5
465 465 1 1.0 0.0 5.0 8.0
466 466 2 -1.0 0.5 5.0 8.0
467 467 1 1.0 0.5 5.5 8.0
468 468 2 -1.0 0.0 5.5 8.0
469 469 1 1.0 0.5 5.0 8.5
470 470 2 -1.0 0.0 5.0 8.5
471 471 1 1.0 0.0 5.5 8.5
472 472 2 -1.0 0.5 5.5 8.5
473 473 1 1.0 0.0 5.0 9.0
474 474 2 -1.0 0.5 5.0 9.0
475 475 1 1.0 0.5 5.5 9.0
476 476 2 -1.0 0.0 5.5 9.0
477 477 1 1.0 0.5 5.0 9.5
478 478 2 -1.0 0.0 5.0 9.5
479 479 1 1.0 0.0 5.5 9.5
480 480 2 -1.0 0.5 5.5 9.5
481 481 1 1.0 0.0 6.0 0.0
482 482 2 -1.0 0.5 6.0 0.0
483 483 1 1.0 0.5 6.5 0.0
484 484 2 -1.0 0.0 6.5 0.0
485 485 1 1.0 0.5 6.0 0.5
486 486 2 -1.0 0.0 6.0 0.5
487 487 1 1.0 0.0 6.5 0.5
488 488 2 -1.0 0.5 6.5 0.5
489 489 1 1.0 0.0 6.0 1.0
490 490 2 -1.0 0.5 6.0 1.0
491 491 1 1.0 0.5 6.5 1.0
492 492 2 -1.0 0.0 6.5 1.0
493 493 1 1.0 0.5 6.0 1.5
494 494 2 -1.0 0.0 6.0 1.5
495 495 1 1.0 0.0 6.5 1.5
496 496 2 -1.0 0.5 6.5 1.5
497 497 1 1.0 0.0 6.0 2.0
498 498 2 -1.0 0.5 6.0 2.0
499 499 1 1.0 0.5 6.5 2.0
500 500 2 -1.0 0.0 6.5 2.0
501 501 1 1.0 0.5 6.0 2.5
502 502 2 -1.0 0.0 6.0 2.5
503 503 1 1.0 0.0 6.5 2.5
504 504 2 -1.0 0.5 6.5 2.5
505 505 1 1.0 0.0 6.0 3.0
506 506 2 -1.0 0.5 6.0 3.0
507 507 1 1.0 0.5 6.5 3.0
508 508 2 -1.0 0.0 6.5 3.0
509 509 1 1.0 0.5 6.0 3.5
510 510 2 -1.0 0.0 6.0 3.5
511 511 1 1.0 0.0 6.5 3.5
512 512 2 -1.0 0.5 6.5 3.5
513 513 1 1.0 0.0 6.0 4.0
514 514 2 -1.0 0.5 6.0 4.0
515 515 1 1.0 0.5 6.5 4.0
516 516 2 -1.0 0.0 6.5 4.0
517 517 1 1.0 0.5 6.0 4.5
518 518 2 -1.0 0.0 6.0 4.5
519 519 1 1.0 0.0 6.5 4.5
520 520 2 -1.0 0.5 6.5 4.5
521 521 1 1.0 0.0 6.0 5.0
522 522 2 -1.0 0.5 6.0 5.0
523 523 1 1.0 0.5 6.5 5.0
524 524 2 -1.0 0.0 6.5 5.0
525 525 1 1.0 0.5 6.0 5.5
526 526 2 -1.0 0.0 6.0 5.5
527 527 1 1.0 0.0 6.5 5.5
528 528 2 -1.0 0.5 6.5 5.5
529 529 1 1.0 0.0 6.0 6.0
530 530 2 -1.0 0.5 6.0 6.0
531 531 1 1.0 0.5 6.5 6.0
532 532 2 -1.0 0.0 6.5 6.0
533 533 1 1.0 0.5 6.0 6.5
534 534 2 -1.0 0.0 6.0 6.5
535 535 1 1.0 0.0 6.5 6.5
536 536 2 -1.0 0.5 6.5 6.5
537 537 1 1.0 0.0 6.0 7.0
538 538 2 -1.0 0.5 6.0 7.0
539 539 1 1.0 0.5 6.5 7.0
540 540 2 -1.0 0.0 6.5 7.0
541 541 1 1.0 0.5 6.0 7.5
542 542 2 -1.0 0.0 6.0 7.5
543 543 1 1.0 0.0 6.5 7.5
544 544 2 -1.0 0.5 6.5 7.5
545 545 1 1.0 0.0 6.0 8.0
546 546 2 -1.0 0.5 6.0 8.0
547 547 1 1.0 0.5 6.5 8.0
548 548 2 -1.0 0.0 6.5 8.0
549 549 1 1.0 0.5 6.0 8.5
550 550 2 -1.0 0.0 6.0 8.5
551 551 1 1.0 0.0 6.5 8.5
552 552 2 -1.0 0.5 6.5 8.5
553 553 1 1.0 0.0 6.0 9.0
554 554 2 -1.0 0.5 6.0 9.0
555 555 1 1.0 0.5 6.5 9.0
556 556 2 -1.0 0.0 6.5 9.0
557 557 1 1.0 0.5 6.0 9.5
558 558 2 -1.0 0.0 6.0 9.5
559 559 1 1.0 0.0 6.5 9.5
560 560 2 -1.0 0.5 6.5 9.5
561 561 1 1.0 0.0 7.0 0.0
562 562 2 -1.0 0.5 7.0 0.0
563 563 1 1.0 0.5 7.5 0.0
564 564 2 -1.0 0.0 7.5 0.0
565 565 1 1.0 0.5 7.0 0.5
566 566 2 -1.0 0.0 7.0 0.5
567 567 1 1.0 0.0 7.5 0.5
568 568 2 -1.0 0.5 7.5 0.5
569 569 1 1.0 0.0 7.0 1.0
570 570 2 -1.0 0.5 7.0 1.0
571 571 1 1.0 0.5 7.5 1.0
572 572 2 -1.0 0.0 7.5 1.0
573 573 1 1.0 0.5 7.0 1.5
574 574 2 -1.0 0.0 7.0 1.5
575 575 1 1.0 0.0 7.5 1.5
576 576 2 -1.0 0.5 7.5 1.5
577 577 1 1.0 0.0 7.0 2.0
578 578 2 -1.0 0.5 7.0 2.0
579 579 1 1.0 0.5 7.5 2.0
580 580 2 -1.0 0.0 7.5 2.0
581 581 1 1.0 0.5 7.0 2.5
582 582 2 -1.0 0.0 7.0 2.5
583 583 1 1.0 0.0 7.5 2.5
584 584 2 -1.0 0.5 7.5 2.5
585 585 1 1.0 0.0 7.0 3.0
586 586 2 -1.0 0.5 7.0 3.0
587 587 1 1.0 0.5 7.5 3.0
588 588 2 -1.0 0.0 7.5 3.0
589 589 1 1.0 0.5 7.0 3.5
590 590 2 -1.0 0.0 7.0 3.5
591 591 1 1.0 0.0 7.5 3.5
592 592 2 -1.0 0.5 7.5 3.5
593 593 1 1.0 0.0 7.0 4.0
594 594 2 -1.0 0.5 7.0 4.0
595 595 1 1.0 0.5 7.5 4.0
596 596 2 -1.0 0.0 7.5 4.0
597 597 1 1.0 0.5 7.0 4.5
598 598 2 -1.0 0.0 7.0 4.5
599 599 1 1.0 0.0 7.5 4.5
600 600 2 -1.0 0.5 7.5 4.5
601 601 1 1.0 0.0 7.0 5.0
602 602 2 -1.0 0.5 7.0 5.0
603 603 1 1.0 0.5 7.5 5.0
604 604 2 -1.0 0.0 7.5 5.0
605 605 1 1.0 0.5 7.0 5.5
606 606 2 -1.0 0.0 7.0 5.5
607 607 1 1.0 0.0 7.5 5.5
608 608 2 -1.0 0.5 7.5 5.5
609 609 1 1.0 0.0 7.0 6.0
610 610 2 -1.0 0.5 7.0 6.0
611 611 1 1.0 0.5 7.5 6.0
612 612 2 -1.0 0.0 7.5 6.0
613 613 1 1.0 0.5 7.0 6.5
614 614 2 -1.0 0.0 7.0 6.5
615 615 1 1.0 0.0 7.5 6.5
616 616 2 -1.0 0.5 7.5 6.5
617 617 1 1.0 0.0 7.0 7.0
618 618 2 -1.0 0.5 7.0 7.0
619 619 1 1.0 0.5 7.5 7.0
620 620 2 -1.0 0.0 7.5 7.0
621 621 1 1.0 0.5 7.0 7.5
622 622 2 -1.0 0.0 7.0 7.5
623 623 1 1.0 0.0 7.5 7.5
624 624 2 -1.0 0.5 7.5 7.5
625 625 1 1.0 0.0 7.0 8.0
626 626 2 -1.0 0.5 7.0 8.0
627 627 1 1.0 0.5 7.5 8.0
628 628 2 -1.0 0.0 7.5 8.0
629 629 1 1.0 0.5 7.0 8.5
630 630 2 -1.0 0.0 7.0 8.5
631 631 1 1.0 0.0 7.5 8.5
632 632 2 -1.0 0.5 7.5 8.5
633 633 1 1.0 0.0 7.0 9.0
634 634 2 -1.0 0.5 7.0 9.0
635 635 1 1.0 0.5 7.5 9.0
636 636 2 -1.0 0.0 7.5 9.0
637 637 1 1.0 0.5 7.0 9.5
638 638 2 -1.0 0.0 7.0 9.5
639 639 1 1.0 0.0 7.5 9.5
640 640 2 -1.0 0.5 7.5 9.5
641 641 1 1.0 0.0 8.0 0.0
642 642 2 -1.0 0.5 8.0 0.0
643 643 1 1.0 0.5 8.5 0.0
644 644 2 -1.0 0.0 8.5 0.0
645 645 1 1.0 0.5 8.0 0.5
646 646 2 -1.0 0.0 8.0 0.5
647 647 1 1.0 0.0 8.5 0.5
648 648 2 -1.0 0.5 8.5 0.5
649 649 1 1.0 0.0 8.0 1.0
650 650 2 -1.0 0.5 8.0 1.0
651 651 1 1.0 0.5 8.5 1.0
652 652 2 -1.0 0.0 8.5 1.0
653 653 1 1.0 0.5 8.0 1.5
654 654 2 -1.0 0.0 8.0 1.5
655 655 1 1.0 0.0 8.5 1.5
656 656 2 -1.0 0.5 8.5 1.5
657 657 1 1.0 0.0 8.0 2.0
658 658 2 -1.0 0.5 8.0 2.0
659 659 1 1.0 0.5 8.5 2.0
660 660 2 -1.0 0.0 8.5 2.0
661 661 1 1.0 0.5 8.0 2.5
662 662 2 -1.0 0.0 8.0 2.5
663 663 1 1.0 0.0 8.5 2.5
664 664 2 -1.0 0.5 8.5 2.5
665 665 1 1.0 0.0 8.0 3.0
666 666 2 -1.0 0.5 8.0 3.0
667 667 1 1.0 0.5 8.5 3.0
668 668 2 -1.0 0.0 8.5 3.0
669 669 1 1.0 0.5 8.0 3.5
670 670 2 -1.0 0.0 8.0 3.5
671 671 1 1.0 0.0 8.5 3.5
672 672 2 -1.0 0.5 8.5 3.5
673 673 1 1.0 0.0 8.0 4.0
674 674 2 -1.0 0.5 8.0 4.0
675 675 1 1.0 0.5 8.5 4.0
676 676 2 -1.0 0.0 8.5 4.0
677 677 1 1.0 0.5 8.0 4.5
678 678 2 -1.0 0.0 8.0 4.5
679 679 1 1.0 0.0 8.5 4.5
680 680 2 -1.0 0.5 8.5 4.5
681 681 1 1.0 0.0 8.0 5.0
682 682 2 -1.0 0.5 8.0 5.0
683 683 1 1.0 0.5 8.5 5.0
684 684 2 -1.0 0.0 8.5 5.0
685 685 1 1.0 0.5 8.0 5.5
686 686 2 -1.0 0.0 8.0 5.5
687 687 1 1.0 0.0 8.5 5.5
688 688 2 -1.0 0.5 8.5 5.5
689 689 1 1.0 0.0 8.0 6.0
690 690 2 -1.0 0.5 8.0 6.0
691 691 1 1.0 0.5 8.5 6.0
692 692 2 -1.0 0.0 8.5 6.0
693 693 1 1.0 0.5 8.0 6.5
694 694 2 -1.0 0.0 8.0 6.5
695 695 1 1.0 0.0 8.5 6.5
696 696 2 -1.0 0.5 8.5 6.5
697 697 1 1.0 0.0 8.0 7.0
698 698 2 -1.0 0.5 8.0 7.0
699 699 1 1.0 0.5 8.5 7.0
700 700 2 -1.0 0.0 8.5 7.0
701 701 1 1.0 0.5 8.0 7.5
702 702 2 -1.0 0.0 8.0 7.5
703 703 1 1.0 0.0 8.5 7.5
704 704 2 -1.0 0.5 8.5 7.5
705 705 1 1.0 0.0 8.0 8.0
706 706 2 -1.0 0.5 8.0 8.0
707 707 1 1.0 0.5 8.5 8.0
708 708 2 -1.0 0.0 8.5 8.0
709 709 1 1.0 0.5 8.0 8.5
710 710 2 -1.0 0.0 8.0 8.5
711 711 1 1.0 0.0 8.5 8.5
712 712 2 -1.0 0.5 8.5 8.5
713 713 1 1.0 0.0 8.0 9.0
714 714 2 -1.0 0.5 8.0 9.0
715 715 1 1.0 0.5 8.5 9.0
716 716 2 -1.0 0.0 8.5 9.0
717 717 1 1.0 0.5 8.0 9.5
718 718 2 -1.0 0.0 8.0 9.5
719 719 1 1.0 0.0 8.5 9.5
720 720 2 -1.0 0.5 8.5 9.5
721 721 1 1.0 0.0 9.0 0.0
722 722 2 -1.0 0.5 9.0 0.0
723 723 1 1.0 0.5 9.5 0.0
724 724 2 -1.0 0.0 9.5 0.0
725 725 1 1.0 0.5 9.0 0.5
726 726 2 -1.0 0.0 9.0 0.5
727 727 1 1.0 0.0 9.5 0.5
728 728 2 -1.0 0.5 9.5 0.5
729 729 1 1.0 0.0 9.0 1.0
730 730 2 -1.0 0.5 9.0 1.0
731 731 1 1.0 0.5 9.5 1.0
732 732 2 -1.0 0.0 9.5 1.0
733 733 1 1.0 0.5 9.0 1.5
734 734 2 -1.0 0.0 9.0 1.5
735 735 1 1.0 0.0 9.5 1.5
736 736 2 -1.0 0.5 9.5 1.5
737 737 1 1.0 0.0 9.0 2.0
738 738 2 -1.0 0.5 9.0 2.0
739 739 1 1.0 0.5 9.5 2.0
740 740 2 -1.0 0.0 9.5 2.0
741 741 1 1.0 0.5 9.0 2.5
742 742 2 -1.0 0.0 9.0 2.5
743 743 1 1.0 0.0 9.5 2.5
744 744 2 -1.0 0.5 9.5 2.5
745 745 1 1.0 0.0 9.0 3.0
746 746 2 -1.0 0.5 9.0 3.0
747 747 1 1.0 0.5 9.5 3.0
748 748 2 -1.0 0.0 9.5 3.0
749 749 1 1.0 0.5 9.0 3.5
750 750 2 -1.0 0.0 9.0 3.5
751 751 1 1.0 0.0 9.5 3.5
752 752 2 -1.0 0.5 9.5 3.5
753 753 1 1.0 0.0 9.0 4.0
754 754 2 -1.0 0.5 9.0 4.0
755 755 1 1.0 0.5 9.5 4.0
756 756 2 -1.0 0.0 9.5 4.0
757 757 1 1.0 0.5 9.0 4.5
758 758 2 -1.0 0.0 9.0 4.5
759 759 1 1.0 0.0 9.5 4.5
760 760 2 -1.0 0.5 9.5 4.5
761 761 1 1.0 0.0 9.0 5.0
762 762 2 -1.0 0.5 9.0 5.0
763 763 1 1.0 0.5 9.5 5.0
764 764 2 -1.0 0.0 9.5 5.0
765 765 1 1.0 0.5 9.0 5.5
766 766 2 -1.0 0.0 9.0 5.5
767 767 1 1.0 0.0 9.5 5.5
768 768 2 -1.0 0.5 9.5 5.5
769 769 1 1.0 0.0 9.0 6.0
770 770 2 -1.0 0.5 9.0 6.0
771 771 1 1.0 0.5 9.5 6.0
772 772 2 -1.0 0.0 9.5 6.0
773 773 1 1.0 0.5 9.0 6.5
774 774 2 -1.0 0.0 9.0 6.5
775 775 1 1.0 0.0 9.5 6.5
776 776 2 -1.0 0.5 9.5 6.5
777 777 1 1.0 0.0 9.0 7.0
778 778 2 -1.0 0.5 9.0 7.0
779 779 1 1.0 0.5 9.5 7.0
780 780 2 -1.0 0.0 9.5 7.0
781 781 1 1.0 0.5 9.0 7.5
782 782 2 -1.0 0.0 9.0 7.5
783 783 1 1.0 0.0 9.5 7.5
784 784 2 -1.0 0.5 9.5 7.5
785 785 1 1.0 0.0 9.0 8.0
786 786 2 -1.0 0.5 9.0 8.0
787 787 1 1.0 0.5 9.5 8.0
788 788 2 -1.0 0.0 9.5 8.0
789 789 1 1.0 0.5 9.0 8.5
790 790 2 -1.0 0.0 9.0 8.5
791 791 1 1.0 0.0 9.5 8.5
792 792 2 -1.0 0.5 9.5 8.5
793 793 1 1.0 0.0 9.0 9.0
794 794 2 -1.0 0.5 9.0 9.0
795 795 1 1.0 0.5 9.5 9.0
796 796 2 -1.0 0.0 9.5 9.0
797 797 1 1.0 0.5 9.0 9.5
798 798 2 -1.0 0.0 9.0 9.5
799 799 1 1.0 0.0 9.5 9.5
800 800 2 -1.0 0.5 9.5 9.5
801 801 1 1.0 1.0 0.0 0.0
802 802 2 -1.0 1.5 0.0 0.0
803 803 1 1.0 1.5 0.5 0.0
804 804 2 -1.0 1.0 0.5 0.0
805 805 1 1.0 1.5 0.0 0.5
806 806 2 -1.0 1.0 0.0 0.5
807 807 1 1.0 1.0 0.5 0.5
808 808 2 -1.0 1.5 0.5 0.5
809 809 1 1.0 1.0 0.0 1.0
810 810 2 -1.0 1.5 0.0 1.0
811 811 1 1.0 1.5 0.5 1.0
812 812 2 -1.0 1.0 0.5 1.0
813 813 1 1.0 1.5 0.0 1.5
814 814 2 -1.0 1.0 0.0 1.5
815 815 1 1.0 1.0 0.5 1.5
816 816 2 -1.0 1.5 0.5 1.5
817 817 1 1.0 1.0 0.0 2.0
818 818 2 -1.0 1.5 0.0 2.0
819 819 1 1.0 1.5 0.5 2.0
820 820 2 -1.0 1.0 0.5 2.0
821 821 1 1.0 1.5 0.0 2.5
822 822 2 -1.0 1.0 0.0 2.5
823 823 1 1.0 1.0 0.5 2.5
824 824 2 -1.0 1.5 0.5 2.5
825 825 1 1.0 1.0 0.0 3.0
826 826 2 -1.0 1.5 0.0 3.0
827 827 1 1.0 1.5 0.5 3.0
828 828 2 -1.0 1.0 0.5 3.0
829 829 1 1.0 1.5 0.0 3.5
830 830 2 -1.0 1.0 0.0 3.5
831 831 1 1.0 1.0 0.5 3.5
832 832 2 -1.0 1.5 0.5 3.5
833 833 1 1.0 1.0 0.0 4.0
834 834 2 -1.0 1.5 0.0 4.0
835 835 1 1.0 1.5 0.5 4.0
836 836 2 -1.0 1.0 0.5 4.0
837 837 1 1.0 1.5 0.0 4.5
838 838 2 -1.0 1.0 0.0 4.5
839 839 1 1.0 1.0 0.5 4.5
840 840 2 -1.0 1.5 0.5 4.5
841 841 1 1.0 1.0 0.0 5.0
842 842 2 -1.0 1.5 0.0 5.0
843 843 1 1.0 1.5 0.5 5.0
844 844 2 -1.0 1.0 0.5 5.0
845 845 1 1.0 1.5 0.0 5.5
846 846 2 -1.0 1.0 0.0 5.5
847 847 1 1.0 1.0 0.5 5.5
848 848 2 -1.0 1.5 0.5 5.5
849 849 1 1.0 1.0 0.0 6.0
850 850 2 -1.0 1.5 0.0 6.0
851 851 1 1.0 1.5 0.5 6.0
852 852 2 -1.0 1.0 0.5 6.0
853 853 1 1.0 1.5 0.0 6.5
854 854 2 -1.0 1.0 0.0 6.5
855 855 1 1.0 1.0 0.5 6.5
856 856 2 -1.0 1.5 0.5 6.5
857 857 1 1.0 1.0 0.0 7.0
858 858 2 -1.0 1.5 0.0 7.0
859 859 1 1.0 1.5 0.5 7.0
860 860 2 -1.0 1.0 0.5 7.0
861 861 1 1.0 1.5 0.0 7.5
862 862 2 -1.0 1.0 0.0 7.5
863 863 1 1.0 1.0 0.5 7.5
864 864 2 -1.0 1.5 0.5 7.5
865 865 1 1.0 1.0 0.0 8.0
866 866 2 -1.0 1.5 0.0 8.0
867 867 1 1.0 1.5 0.5 8.0
868 868 2 -1.0 1.0 0.5 8.0
869 869 1 1.0 1.5 0.0 8.5
870 870 2 -1.0 1.0 0.0 8.5
871 871 1 1.0 1.0 0.5 8.5
872 872 2 -1.0 1.5 0.5 8.5
873 873 1 1.0 1.0 0.0 9.0
874 874 2 -1.0 1.5 0.0 9.0
875 875 1 1.0 1.5 0.5 9.0
876 876 2 -1.0 1.0 0.5 9.0
877 877 1 1.0 1.5 0.0 9.5
878 878 2 -1.0 1.0 0.0 9.5
879 879 1 1.0 1.0 0.5 9.5
880 880 2 -1.0 1.5 0.5 9.5
881 881 1 1.0 1.0 1.0 0.0
882 882 2 -1.0 1.5 1.0 0.0
883 883 1 1.0 1.5 1.5 0.0
884 884 2 -1.0 1.0 1.5 0.0
885 885 1 1.0 1.5 1.0 0.5
886 886 2 -1.0 1.0 1.0 0.5
887 887 1 1.0 1.0 1.5 0.5
888 888 2 -1.0 1.5 1.5 0.5
889 889 1 1.0 1.0 1.0 1.0
890 890 2 -1.0 1.5 1.0 1.0
891 891 1 1.0 1.5 1.5 1.0
892 892 2 -1.0 1.0 1.5 1.0
893 893 1 1.0 1.5 1.0 1.5
894 894 2 -1.0 1.0 1.0 1.5
895 895 1 1.0 1.0 1.5 1.5
896 896 2 -1.0 1.5 1.5 1.5
897 897 1 1.0 1.0 1.0 2.0
898 898 2 -1.0 1.5 1.0 2.0
899 899 1 1.0 1.5 1.5 2.0
900 900 2 -1.0 1.0 1.5 2.0
901 901 1 1.0 1.5 1.0 2.5
902 902 2 -1.0 1.0 1.0 2.5
903 903 1 1.0 1.0 1.5 2.5
904 904 2 -1.0 1.5 1.5 2.5
905 905 1 1.0 1.0 1.0 3.0
906 906 2 -1.0 1.5 1.0 3.0
907 907 1 1.0 1.5 1.5 3.0
908 908 2 -1.0 1.0 1.5 3.0
909 909 1 1.0 1.5 1.0 3.5
910 910 2 -1.0 1.0 1.0 3.5
911 911 1 1.0 1.0 1.5 3.5
912 912 2 -1.0 1.5 1.5 3.5
913 913 1 1.0 1.0 1.0 4.0
914 914 2 -1.0 1.5 1.0 4.0
915 915 1 1.0 1.5 1.5 4.0
916 916 2 -1.0 1.0 1.5 4.0
917 917 1 1.0 1.5 1.0 4.5
918 918 2 -1.0 1.0 1.0 4.5
919 919 1 1.0 1.0 1.5 4.5
920 920 2 -1.0 1.5 1.5 4.5
921 921 1 1.0 1.0 1.0 5.0
922 922 2 -1.0 1.5 1.0 5.0
923 923 1 1.0 1.5 1.5 5.0
924 924 2 -1.0 1.0 1.5 5.0
925 925 1 1.0 1.5 1.0 5.5
926 926 2 -1.0 1.0 1.0 5.5
927 927 1 1.0 1.0 1.5 5.5
928 928 2 -1.0 1.5 1.5 5.5
929 929 1 1.0 1.0 1.0 6.0
930 930 2 -1.0 1.5 1.0 6.0
931 931 1 1.0 1.5 1.5 6.0
932 932 2 -1.0 1.0 1.5 6.0
933 933 1 1.0 1.5 1.0 6.5
934 934 2 -1.0 1.0 1.0 6.5
935 935 1 1.0 1.0 1.5 6.5
936 936 2 -1.0 1.5 1.5 6.5
937 937 1 1.0 1.0 1.0 7.0
938 938 2 -1.0 1.5 1.0 7.0
939 939 1 1.0 1.5 1.5 7.0
940 940 2 -1.0 1.0 1.5 7.0
941 941 1 1.0 1.5 1.0 7.5
942 942 2 -1.0 1.0 1.0 7.5
943 943 1 1.0 1.0 1.5 7.5
944 944 2 -1.0 1.5 1.5 7.5
945 945 1 1.0 1.0 1.0 8.0
946 946 2 -1.0 1.5 1.0 8.0
947 947 1 1.0 1.5 1.5 8.0
948 948 2 -1.0 1.0 1.5 8.0
949 949 1 1.0 1.5 1.0 8.5
950 950 2 -1.0 1.0 1.0 8.5
951 951 1 1.0 1.0 1.5 8.5
952 952 2 -1.0 1.5 1.5 8.5
953 953 1 1.0 1.0 1.0 9.0
954 954 2 -1.0 1.5 1.0 9.0
955 955 1 1.0 1.5 1.5 9.0
956 956 2 -1.0 1.0 1.5 9.0
957 957 1 1.0 1.5 1.0 9.5
958 958 2 -1.0 1.0 1.0 9.5
959 959 1 1.0 1.0 1.5 9.5
960 960 2 -1.0 1.5 1.5 9.5
961 961 1 1.0 1.0 2.0 0.0
962 962 2 -1.0 1.5 2.0 0.0
963 963 1 1.0 1.5 2.5 0.0
964 964 2 -1.0 1.0 2.5 0.0
965 965 1 1.0 1.5 2.0 0.5
966 966 2 -1.0 1.0 2.0 0.5
967 967 1 1.0 1.0 2.5 0.5
968 968 2 -1.0 1.5 2.5 0.5
969 969 1 1.0 1.0 2.0 1.0
970 970 2 -1.0 1.5 2.0 1.0
971 971 1 1.0 1.5 2.5 1.0
972 972 2 -1.0 1.0 2.5 1.0
973 973 1 1.0 1.5 2.0 1.5
974 974 2 -1.0 1.0 2.0 1.5
975 975 1 1.0 1.0 2.5 1.5
976 976 2 -1.0 1.5 2.5 1.5
977 977 1 1.0 1.0 2.0 2.0
978 978 2 -1.0 1.5 2.0 2.0
979 979 1 1.0 1.5 2.5 2.0
980 980 2 -1.0 1.0 2.5 2.0
981 981 1 1.0 1.5 2.0 2.5
982 982 2 -1.0 1.0 2.0 2.5
983 983 1 1.0 1.0 2.5 2.5
984 984 2 -1.0 1.5 2.5 2.5
985 985 1 1.0 1.0 2.0 3.0
986 986 2 -1.0 1.5 2.0 3.0
987 987 1 1.0 1.5 2.5 3.0
988 988 2 -1.0 1.0 2.5 3.0
989 989 1 1.0 1.5 2.0 3.5
990 990 2 -1.0 1.0 2.0 3.5
991 991 1 1.0 1.0 2.5 3.5
992 992 2 -1.0 1.5 2.5 3.5
993 993 1 1.0 1.0 2.0 4.0
994 994 2 -1.0 1.5 2.0 4.0
995 995 1 1.0 1.5 2.5 4.0
996 996 2 -1.0 1.0 2.5 4.0
997 997 1 1.0 1.5 2.0 4.5
998 998 2 -1.0 1.0 2.0 4.5
999 999 1 1.0 1.0 2.5 4.5
1000 1000 2 -1.0 1.5 2.5 4.5
1001 1001 1 1.0 1.0 2.0 5.0
1002 1002 2 -1.0 1.5 2.0 5.0
1003 1003 1 1.0 1.5 2.5 5.0
1004 1004 2 -1.0 1.0 2.5 5.0
1005 1005 1 1.0 1.5 2.0 5.5
1006 1006 2 -1.0 1.0 2.0 5.5
1007 1007 1 1.0 1.0 2.5 5.5
1008 1008 2 -1.0 1.5 2.5 5.5
1009 1009 1 1.0 1.0 2.0 6.0
1010 1010 2 -1.0 1.5 2.0 6.0
1011 1011 1 1.0 1.5 2.5 6.0
1012 1012 2 -1.0 1.0 2.5 6.0
1013 1013 1 1.0 1.5 2.0 6.5
1014 1014 2 -1.0 1.0 2.0 6.5
1015 1015 1 1.0 1.0 2.5 6.5
1016 1016 2 -1.0 1.5 2.5 6.5
1017 1017 1 1.0 1.0 2.0 7.0
1018 1018 2 -1.0 1.5 2.0 7.0
1019 1019 1 1.0 1.5 2.5 7.0
1020 1020 2 -1.0 1.0 2.5 7.0
1021 1021 1 1.0 1.5 2.0 7.5
1022 1022 2 -1.0 1.0 2.0 7.5
1023 1023 1 1.0 1.0 2.5 7.5
1024 1024 2 -1.0 1.5 2.5 7.5
1025 1025 1 1.0 1.0 2.0 8.0
1026 1026 2 -1.0 1.5 2.0 8.0
1027 1027 1 1.0 1.5 2.5 8.0
1028 1028 2 -1.0 1.0 2.5 8.0
1029 1029 1 1.0 1.5 2.0 8.5
1030 1030 2 -1.0 1.0 2.0 8.5
1031 1031 1 1.0 1.0 2.5 8.5
1032 1032 2 -1.0 1.5 2.5 8.5
1033 1033 1 1.0 1.0 2.0 9.0
1034 1034 2 -1.0 1.5 2.0 9.0
1035 1035 1 1.0 1.5 2.5 9.0
1036 1036 2 -1.0 1.0 2.5 9.0
1037 1037 1 1.0 1.5 2.0 9.5
1038 1038 2 -1.0 1.0 2.0 9.5
1039 1039 1 1.0 1.0 2.5 9.5
1040 1040 2 -1.0 1.5 2.5 9.5
1041 1041 1 1.0 1.0 3.0 0.0
1042 1042 2 -1.0 1.5 3.0 0.0
1043 1043 1 1.0 1.5 3.5 0.0
1044 1044 2 -1.0 1.0 3.5 0.0
1045 1045 1 1.0 1.5 3.0 0.5
1046 1046 2 -1.0 1.0 3.0 0.5
1047 1047 1 1.0 1.0 3.5 0.5
1048 1048 2 -1.0 1.5 3.5 0.5
1049 1049 1 1.0 1.0 3.0 1.0
1050 1050 2 -1.0 1.5 3.0 1.0
1051 1051 1 1.0 1.5 3.5 1.0
1052 1052 2 -1.0 1.0 3.5 1.0
1053 1053 1 1.0 1.5 3.0 1.5
1054 1054 2 -1.0 1.0 3.0 1.5
1055 1055 1 1.0 1.0 3.5 1.5
1056 1056 2 -1.0 1.5 3.5 1.5
1057 1057 1 1.0 1.0 3.0 2.0
1058 1058 2 -1.0 1.5 3.0 2.0
1059 1059 1 1.0 1.5 3.5 2.0
1060 1060 2 -1.0 1.0 3.5 2.0
1061 1061 1 1.0 1.5 3.0 2.5
1062 1062 2 -1.0 1.0 3.0 2.5
1063 1063 1 1.0 1.0 3.5 2.5
1064 1064 2 -1.0 1.5 3.5 2.5
1065 1065 1 1.0 1.0 3.0 3.0
1066 1066 2 -1.0 1.5 3.0 3.0
1067 1067 1 1.0 1.5 3.5 3.0
1068 1068 2 -1.0 1.0 3.5 3.0
1069 1069 1 1.0 1.5 3.0 3.5
1070 1070 2 -1.0 1.0 3.0 3.5
1071 1071 1 1.0 1.0 3.5 3.5
1072 1072 2 -1.0 1.5 3.5 3.5
1073 1073 1 1.0 1.0 3.0 4.0
1074 1074 2 -1.0 1.5 3.0 4.0
1075 1075 1 1.0 1.5 3.5 4.0
1076 1076 2 -1.0 1.0 3.5 4.0
1077 1077 1 1.0 1.5 3.0 4.5
1078 1078 2 -1.0 1.0 3.0 4.5
1079 1079 1 1.0 1.0 3.5 4.5
1080 1080 2 -1.0 1.5 3.5 4.5
1081 1081 1 1.0 1.0 3.0 5.0
1082 1082 2 -1.0 1.5 3.0 5.0
1083 1083 1 1.0 1.5 3.5 5.0
1084 1084 2 -1.0 1.0 3.5 5.0
1085 1085 1 1.0 1.5 3.0 5.5
1086 1086 2 -1.0 1.0 3.0 5.5
1087 1087 1 1.0 1.0 3.5 5.5
1088 1088 2 -1.0 1.5 3.5 5.5
1089 1089 1 1.0 1.0 3.0 6.0
1090 1090 2 -1.0 1.5 3.0 6.0
1091 1091 1 1.0 1.5 3.5 6.0
1092 1092 2 -1.0 1.0 3.5 6.0
1093 1093 1 1.0 1.5 3.0 6.5
1094 1094 2 -1.0 1.0 3.0 6.5
1095 1095 1 1.0 1.0 3.5 6.5
1096 1096 2 -1.0 1.5 3.5 6.5
1097 1097 1 1.0 1.0 3.0 7.0
1098 1098 2 -1.0 1.5 3.0 7.0
1099 1099 1 1.0 1.5 3.5 7.0
1100 1100 2 -1.0 1.0 3.5 7.0
1101 1101 1 1.0 1.5 3.0 7.5
1102 1102 2 -1.0 1.0 3.0 7.5
1103 1103 1 1.0 1.0 3.5 7.5
1104 1104 2 -1.0 1.5 3.5 7.5
1105 1105 1 1.0 1.0 3.0 8.0
1106 1106 2 -1.0 1.5 3.0 8.0
1107 1107 1 1.0 1.5 3.5 8.0
1108 1108 2 -1.0 1.0 3.5 8.0
1109 1109 1 1.0 1.5 3.0 8.5
1110 1110 2 -1.0 1.0 3.0 8.5
1111 1111 1 1.0 1.0 3.5 8.5
1112 1112 2 -1.0 1.5 3.5 8.5
1113 1113 1 1.0 1.0 3.0 9.0
1114 1114 2 -1.0 1.5 3.0 9.0
1115 1115 1 1.0 1.5 3.5 9.0
1116 1116 2 -1.0 1.0 3.5 9.0
1117 1117 1 1.0 1.5 3.0 9.5
1118 1118 2 -1.0 1.0 3.0 9.5
1119 1119 1 1.0 1.0 3.5 9.5
1120 1120 2 -1.0 1.5 3.5 9.5
1121 1121 1 1.0 1.0 4.0 0.0
1122 1122 2 -1.0 1.5 4.0 0.0